ITEM: TIMESTEP
14000000
ITEM: NUMBER OF ATOMS
50
ITEM: BOX BOUNDS pp pp pp
-3.6432943652992435e+01 3.5813943680898205e+01
-2.4495515884382446e+01 7.2417516835230089e+01
-3.8199197455252637e+01 2.8020200454393738e+01
ITEM: ATOMS id type xu yu zu
1	1	3.8	1.972	-8.525
2	18	3.916	1.691	-9.623
3	22	5.091	1.636	-7.815
4	2	5.4	0.161	-7.848
5	8	5.436	-0.21	-8.925
6	3	4.286	-0.564	-7.077
7	9	4.219	-0.157	-6.015
8	24	4.577	-2.046	-7.032
9	20	3.756	-2.563	-6.491
10	4	2.966	-0.32	-7.828
11	13	3.07	-0.735	-8.885
12	25	1.85	-1.043	-7.112
13	21	0.898	-0.88	-7.659
14	5	2.615	1.18	-7.914
15	14	2.438	1.571	-6.858
16	26	1.314	1.153	-8.699
17	6	3.724	3.505	-8.323
18	16	4.673	3.959	-8.763
19	23	2.543	4.218	-8.935
20	7	2.657	5.708	-8.723
21	17	3.711	3.709	-7.202
22	10	1.758	6.238	-9.183
23	11	3.614	6.08	-9.22
24	12	2.699	5.926	-7.605
25	1	-1.401	3.573	-9.829
26	18	-1.174	4.393	-9.07
27	22	-0.768	2.281	-9.361
28	2	0.733	2.428	-9.258
29	8	0.964	3.285	-8.545
30	3	1.249	2.693	-10.69
31	9	0.866	1.875	-11.386
32	24	2.753	2.721	-10.81
33	20	3.033	2.933	-11.862
34	4	0.701	4.059	-11.138
35	13	1.022	4.861	-10.394
36	25	1.235	4.404	-12.506
37	21	0.826	5.384	-12.827
38	5	-0.832	3.969	-11.208
39	14	-1.11	3.166	-11.967
40	26	-1.365	5.305	-11.671
41	15	-2.461	5.25	-11.827
42	6	-2.925	3.359	-9.946
43	16	-3.347	3.039	-8.936
44	23	-3.614	4.628	-10.384
45	7	-5.073	4.344	-10.651
46	17	-3.124	2.544	-10.719
47	10	-5.165	3.568	-11.481
48	11	-5.578	5.313	-10.979
49	12	-5.574	3.953	-9.704
50	27	6.731	-0.094	-7.183
51	19	6.943	-1.183	-7.194 
